 Title= "ADflow Lift Distribution Data"
Variables = "eta" "CoordinateX" "CoordinateY" "CoordinateZ" "Lift" "Drag" "Normalized Lift" "Normalized Drag" "CL" "CD" "CLp" "CDp" "CLv" "CDv" "Ellptical" "thickness" "twist" "chord" "Fx" "Fy" "Fz" 
Zone T= "LiftDist_01 allWalls: : y normal"
 I=          150
 DATAPACKING=BLOCK
  0.000000E+00
  0.671141E-02
  0.134228E-01
  0.201342E-01
  0.268456E-01
  0.335570E-01
  0.402685E-01
  0.469799E-01
  0.536913E-01
  0.604027E-01
  0.671141E-01
  0.738255E-01
  0.805369E-01
  0.872483E-01
  0.939597E-01
  0.100671E+00
  0.107383E+00
  0.114094E+00
  0.120805E+00
  0.127517E+00
  0.134228E+00
  0.140940E+00
  0.147651E+00
  0.154362E+00
  0.161074E+00
  0.167785E+00
  0.174497E+00
  0.181208E+00
  0.187919E+00
  0.194631E+00
  0.201342E+00
  0.208054E+00
  0.214765E+00
  0.221477E+00
  0.228188E+00
  0.234899E+00
  0.241611E+00
  0.248322E+00
  0.255034E+00
  0.261745E+00
  0.268456E+00
  0.275168E+00
  0.281879E+00
  0.288591E+00
  0.295302E+00
  0.302013E+00
  0.308725E+00
  0.315436E+00
  0.322148E+00
  0.328859E+00
  0.335570E+00
  0.342282E+00
  0.348993E+00
  0.355705E+00
  0.362416E+00
  0.369128E+00
  0.375839E+00
  0.382550E+00
  0.389262E+00
  0.395973E+00
  0.402685E+00
  0.409396E+00
  0.416107E+00
  0.422819E+00
  0.429530E+00
  0.436242E+00
  0.442953E+00
  0.449664E+00
  0.456376E+00
  0.463087E+00
  0.469799E+00
  0.476510E+00
  0.483221E+00
  0.489933E+00
  0.496644E+00
  0.503356E+00
  0.510067E+00
  0.516779E+00
  0.523490E+00
  0.530201E+00
  0.536913E+00
  0.543624E+00
  0.550336E+00
  0.557047E+00
  0.563758E+00
  0.570470E+00
  0.577181E+00
  0.583893E+00
  0.590604E+00
  0.597315E+00
  0.604027E+00
  0.610738E+00
  0.617450E+00
  0.624161E+00
  0.630872E+00
  0.637584E+00
  0.644295E+00
  0.651007E+00
  0.657718E+00
  0.664430E+00
  0.671141E+00
  0.677852E+00
  0.684564E+00
  0.691275E+00
  0.697987E+00
  0.704698E+00
  0.711409E+00
  0.718121E+00
  0.724832E+00
  0.731544E+00
  0.738255E+00
  0.744966E+00
  0.751678E+00
  0.758389E+00
  0.765101E+00
  0.771812E+00
  0.778523E+00
  0.785235E+00
  0.791946E+00
  0.798658E+00
  0.805369E+00
  0.812081E+00
  0.818792E+00
  0.825503E+00
  0.832215E+00
  0.838926E+00
  0.845638E+00
  0.852349E+00
  0.859060E+00
  0.865772E+00
  0.872483E+00
  0.879195E+00
  0.885906E+00
  0.892617E+00
  0.899329E+00
  0.906040E+00
  0.912752E+00
  0.919463E+00
  0.926174E+00
  0.932886E+00
  0.939597E+00
  0.946309E+00
  0.953020E+00
  0.959732E+00
  0.966443E+00
  0.973154E+00
  0.979866E+00
  0.986577E+00
  0.993289E+00
  0.100000E+01
  0.000000E+00
  0.000000E+00
  0.000000E+00
  0.000000E+00
  0.000000E+00
  0.000000E+00
  0.000000E+00
  0.000000E+00
  0.000000E+00
  0.000000E+00
  0.000000E+00
  0.000000E+00
  0.000000E+00
  0.000000E+00
  0.000000E+00
  0.000000E+00
  0.000000E+00
  0.000000E+00
  0.000000E+00
  0.000000E+00
  0.000000E+00
  0.000000E+00
  0.000000E+00
  0.000000E+00
  0.000000E+00
  0.000000E+00
  0.000000E+00
  0.000000E+00
  0.000000E+00
  0.000000E+00
  0.000000E+00
  0.000000E+00
  0.000000E+00
  0.000000E+00
  0.000000E+00
  0.000000E+00
  0.000000E+00
  0.000000E+00
  0.000000E+00
  0.000000E+00
  0.000000E+00
  0.000000E+00
  0.000000E+00
  0.000000E+00
  0.000000E+00
  0.000000E+00
  0.000000E+00
  0.000000E+00
  0.000000E+00
  0.000000E+00
  0.000000E+00
  0.000000E+00
  0.000000E+00
  0.000000E+00
  0.000000E+00
  0.000000E+00
  0.000000E+00
  0.000000E+00
  0.000000E+00
  0.000000E+00
  0.000000E+00
  0.000000E+00
  0.000000E+00
  0.000000E+00
  0.000000E+00
  0.000000E+00
  0.000000E+00
  0.000000E+00
  0.000000E+00
  0.000000E+00
  0.000000E+00
  0.000000E+00
  0.000000E+00
  0.000000E+00
  0.000000E+00
  0.000000E+00
  0.000000E+00
  0.000000E+00
  0.000000E+00
  0.000000E+00
  0.000000E+00
  0.000000E+00
  0.000000E+00
  0.000000E+00
  0.000000E+00
  0.000000E+00
  0.000000E+00
  0.000000E+00
  0.000000E+00
  0.000000E+00
  0.000000E+00
  0.000000E+00
  0.000000E+00
  0.000000E+00
  0.000000E+00
  0.000000E+00
  0.000000E+00
  0.000000E+00
  0.000000E+00
  0.000000E+00
  0.000000E+00
  0.000000E+00
  0.000000E+00
  0.000000E+00
  0.000000E+00
  0.000000E+00
  0.000000E+00
  0.000000E+00
  0.000000E+00
  0.000000E+00
  0.000000E+00
  0.000000E+00
  0.000000E+00
  0.000000E+00
  0.000000E+00
  0.000000E+00
  0.000000E+00
  0.000000E+00
  0.000000E+00
  0.000000E+00
  0.000000E+00
  0.000000E+00
  0.000000E+00
  0.000000E+00
  0.000000E+00
  0.000000E+00
  0.000000E+00
  0.000000E+00
  0.000000E+00
  0.000000E+00
  0.000000E+00
  0.000000E+00
  0.000000E+00
  0.000000E+00
  0.000000E+00
  0.000000E+00
  0.000000E+00
  0.000000E+00
  0.000000E+00
  0.000000E+00
  0.000000E+00
  0.000000E+00
  0.000000E+00
  0.000000E+00
  0.000000E+00
  0.000000E+00
  0.000000E+00
  0.000000E+00
  0.000000E+00
  0.000000E+00
 -0.448630E+02
 -0.439635E+02
 -0.430640E+02
 -0.421645E+02
 -0.412649E+02
 -0.403654E+02
 -0.394659E+02
 -0.385664E+02
 -0.376668E+02
 -0.367673E+02
 -0.358678E+02
 -0.349683E+02
 -0.340687E+02
 -0.331692E+02
 -0.322697E+02
 -0.313702E+02
 -0.304706E+02
 -0.295711E+02
 -0.286716E+02
 -0.277721E+02
 -0.268725E+02
 -0.259730E+02
 -0.250735E+02
 -0.241740E+02
 -0.232745E+02
 -0.223749E+02
 -0.214754E+02
 -0.205759E+02
 -0.196764E+02
 -0.187768E+02
 -0.178773E+02
 -0.169778E+02
 -0.160783E+02
 -0.151787E+02
 -0.142792E+02
 -0.133797E+02
 -0.124802E+02
 -0.115806E+02
 -0.106811E+02
 -0.978160E+01
 -0.888208E+01
 -0.798255E+01
 -0.708303E+01
 -0.618350E+01
 -0.528398E+01
 -0.438446E+01
 -0.348493E+01
 -0.258541E+01
 -0.168589E+01
 -0.786363E+00
  0.113161E+00
  0.101268E+01
  0.191221E+01
  0.281173E+01
  0.371126E+01
  0.461078E+01
  0.551030E+01
  0.640983E+01
  0.730935E+01
  0.820887E+01
  0.910840E+01
  0.100079E+02
  0.109074E+02
  0.118070E+02
  0.127065E+02
  0.136060E+02
  0.145055E+02
  0.154051E+02
  0.163046E+02
  0.172041E+02
  0.181036E+02
  0.190032E+02
  0.199027E+02
  0.208022E+02
  0.217017E+02
  0.226013E+02
  0.235008E+02
  0.244003E+02
  0.252998E+02
  0.261993E+02
  0.270989E+02
  0.279984E+02
  0.288979E+02
  0.297974E+02
  0.306970E+02
  0.315965E+02
  0.324960E+02
  0.333955E+02
  0.342951E+02
  0.351946E+02
  0.360941E+02
  0.369936E+02
  0.378932E+02
  0.387927E+02
  0.396922E+02
  0.405917E+02
  0.414912E+02
  0.423908E+02
  0.432903E+02
  0.441898E+02
  0.450893E+02
  0.459889E+02
  0.468884E+02
  0.477879E+02
  0.486874E+02
  0.495870E+02
  0.504865E+02
  0.513860E+02
  0.522855E+02
  0.531851E+02
  0.540846E+02
  0.549841E+02
  0.558836E+02
  0.567831E+02
  0.576827E+02
  0.585822E+02
  0.594817E+02
  0.603812E+02
  0.612808E+02
  0.621803E+02
  0.630798E+02
  0.639793E+02
  0.648789E+02
  0.657784E+02
  0.666779E+02
  0.675774E+02
  0.684770E+02
  0.693765E+02
  0.702760E+02
  0.711755E+02
  0.720751E+02
  0.729746E+02
  0.738741E+02
  0.747736E+02
  0.756731E+02
  0.765727E+02
  0.774722E+02
  0.783717E+02
  0.792712E+02
  0.801708E+02
  0.810703E+02
  0.819698E+02
  0.828693E+02
  0.837689E+02
  0.846684E+02
  0.855679E+02
  0.864674E+02
  0.873670E+02
  0.882665E+02
  0.891660E+02
  0.000000E+00
  0.000000E+00
  0.000000E+00
  0.000000E+00
  0.000000E+00
  0.000000E+00
  0.000000E+00
  0.000000E+00
  0.000000E+00
  0.000000E+00
  0.000000E+00
  0.000000E+00
  0.000000E+00
  0.000000E+00
  0.000000E+00
  0.000000E+00
  0.000000E+00
  0.000000E+00
  0.000000E+00
  0.000000E+00
  0.000000E+00
  0.000000E+00
  0.000000E+00
  0.000000E+00
  0.000000E+00
  0.000000E+00
  0.000000E+00
  0.000000E+00
  0.000000E+00
  0.000000E+00
  0.000000E+00
  0.000000E+00
  0.000000E+00
  0.000000E+00
  0.000000E+00
  0.000000E+00
  0.000000E+00
  0.000000E+00
  0.000000E+00
  0.000000E+00
  0.000000E+00
  0.000000E+00
  0.000000E+00
  0.000000E+00
  0.000000E+00
  0.000000E+00
  0.000000E+00
  0.000000E+00
  0.000000E+00
  0.000000E+00
  0.000000E+00
  0.000000E+00
  0.000000E+00
  0.000000E+00
  0.000000E+00
  0.000000E+00
  0.000000E+00
  0.000000E+00
  0.000000E+00
  0.000000E+00
  0.000000E+00
  0.000000E+00
  0.000000E+00
  0.000000E+00
  0.000000E+00
  0.000000E+00
  0.000000E+00
  0.000000E+00
  0.000000E+00
  0.000000E+00
  0.000000E+00
  0.000000E+00
  0.000000E+00
  0.000000E+00
  0.000000E+00
  0.000000E+00
  0.000000E+00
  0.000000E+00
  0.000000E+00
  0.000000E+00
  0.000000E+00
  0.000000E+00
  0.000000E+00
  0.000000E+00
  0.000000E+00
  0.000000E+00
  0.000000E+00
  0.000000E+00
  0.000000E+00
  0.000000E+00
  0.000000E+00
  0.000000E+00
  0.000000E+00
  0.000000E+00
  0.000000E+00
  0.000000E+00
  0.000000E+00
  0.000000E+00
  0.000000E+00
  0.000000E+00
  0.000000E+00
  0.000000E+00
  0.000000E+00
  0.000000E+00
  0.000000E+00
  0.000000E+00
  0.000000E+00
  0.000000E+00
  0.000000E+00
  0.000000E+00
  0.000000E+00
  0.000000E+00
  0.000000E+00
  0.000000E+00
  0.000000E+00
  0.000000E+00
  0.000000E+00
  0.000000E+00
  0.000000E+00
  0.000000E+00
  0.000000E+00
  0.000000E+00
  0.000000E+00
  0.000000E+00
  0.000000E+00
  0.000000E+00
  0.000000E+00
  0.000000E+00
  0.000000E+00
  0.000000E+00
  0.000000E+00
  0.000000E+00
  0.000000E+00
  0.000000E+00
  0.000000E+00
  0.000000E+00
  0.000000E+00
  0.000000E+00
  0.000000E+00
  0.000000E+00
  0.000000E+00
  0.000000E+00
  0.000000E+00
  0.000000E+00
  0.000000E+00
  0.000000E+00
  0.000000E+00
  0.000000E+00
  0.000000E+00
  0.000000E+00
 -0.506439E-02
 -0.701339E+03
 -0.452533E+03
 -0.356243E+03
 -0.282879E+03
 -0.240753E+03
 -0.218967E+03
 -0.213340E+03
 -0.215716E+03
 -0.221515E+03
 -0.221861E+03
 -0.214855E+03
 -0.195346E+03
 -0.178090E+03
 -0.237695E+03
 -0.286485E+03
 -0.378607E+03
 -0.474777E+03
 -0.523748E+03
 -0.564483E+03
 -0.579302E+03
 -0.537783E+03
 -0.537912E+03
 -0.523380E+03
 -0.507962E+03
 -0.528518E+03
 -0.537373E+03
 -0.545846E+03
 -0.548798E+03
 -0.550677E+03
 -0.552836E+03
 -0.572538E+03
 -0.632676E+03
 -0.663404E+03
 -0.706908E+03
 -0.814433E+03
 -0.831918E+03
 -0.857770E+03
 -0.936482E+03
 -0.918698E+03
 -0.856068E+03
 -0.749126E+03
 -0.551339E+03
 -0.385157E+03
 -0.252722E+03
 -0.201922E+03
 -0.294076E+03
  0.165972E+04
  0.286474E+04
  0.348152E+04
  0.360167E+04
  0.233187E+04
  0.112272E+04
  0.439385E+03
  0.345565E+02
  0.452683E+02
  0.566601E+02
  0.710992E+02
  0.875677E+02
  0.103824E+03
  0.119837E+03
  0.128766E+03
  0.137705E+03
  0.146638E+03
  0.156988E+03
  0.178898E+03
  0.200612E+03
  0.222156E+03
  0.243553E+03
  0.261218E+03
  0.278065E+03
  0.294702E+03
  0.311200E+03
  0.320798E+03
  0.314927E+03
  0.309313E+03
  0.303969E+03
  0.298911E+03
  0.287973E+03
  0.270226E+03
  0.252785E+03
  0.235647E+03
  0.218809E+03
  0.204876E+03
  0.194952E+03
  0.185174E+03
  0.175542E+03
  0.166055E+03
  0.158535E+03
  0.158462E+03
  0.158337E+03
  0.158160E+03
  0.157933E+03
  0.157657E+03
  0.159172E+03
  0.160755E+03
  0.162241E+03
  0.163634E+03
  0.164937E+03
  0.164784E+03
  0.163859E+03
  0.162904E+03
  0.161921E+03
  0.160915E+03
  0.158529E+03
  0.154681E+03
  0.150832E+03
  0.146983E+03
  0.143137E+03
  0.137982E+03
  0.131481E+03
  0.125043E+03
  0.118669E+03
  0.112356E+03
  0.105529E+03
  0.986105E+02
  0.918282E+02
  0.851822E+02
  0.793748E+02
  0.756613E+02
  0.719921E+02
  0.683674E+02
  0.650415E+02
  0.635740E+02
  0.621094E+02
  0.606476E+02
  0.592836E+02
  0.581032E+02
  0.569180E+02
  0.557281E+02
  0.547259E+02
  0.537295E+02
  0.527213E+02
  0.517042E+02
  0.506777E+02
  0.496997E+02
  0.490600E+02
  0.483931E+02
  0.488772E+02
  0.496460E+02
  0.516658E+02
  0.541258E+02
  0.577106E+02
  0.617394E+02
  0.666511E+02
  0.753491E+02
  0.784192E+02
  0.727286E+02
  0.140848E+03
  0.730080E-04
  0.229256E-04
  0.113783E+05
  0.159682E+05
  0.181172E+05
  0.193199E+05
  0.200181E+05
  0.204280E+05
  0.206622E+05
  0.207920E+05
  0.208713E+05
  0.208920E+05
  0.208231E+05
  0.206616E+05
  0.203718E+05
  0.201222E+05
  0.199791E+05
  0.198565E+05
  0.197937E+05
  0.196402E+05
  0.194211E+05
  0.191297E+05
  0.187372E+05
  0.182929E+05
  0.178414E+05
  0.173421E+05
  0.168617E+05
  0.163653E+05
  0.158496E+05
  0.153502E+05
  0.147965E+05
  0.142133E+05
  0.136272E+05
  0.130255E+05
  0.124066E+05
  0.116752E+05
  0.109111E+05
  0.100061E+05
  0.904312E+04
  0.802534E+04
  0.701558E+04
  0.605287E+04
  0.509544E+04
  0.409325E+04
  0.313866E+04
  0.227915E+04
  0.171688E+04
  0.163773E+04
  0.169234E+04
  0.144264E+04
  0.129970E+04
  0.134376E+04
  0.127624E+04
  0.950310E+03
  0.709690E+03
  0.505902E+03
  0.340164E+03
  0.173834E+03
  0.153040E+03
  0.256682E+03
  0.359206E+03
  0.460669E+03
  0.574878E+03
  0.688372E+03
  0.801163E+03
  0.914227E+03
  0.103429E+04
  0.115353E+04
  0.127208E+04
  0.139009E+04
  0.153715E+04
  0.168659E+04
  0.183435E+04
  0.198111E+04
  0.212566E+04
  0.226408E+04
  0.240014E+04
  0.253451E+04
  0.266787E+04
  0.279082E+04
  0.289984E+04
  0.300587E+04
  0.310906E+04
  0.320956E+04
  0.330536E+04
  0.339526E+04
  0.348237E+04
  0.356673E+04
  0.364837E+04
  0.372801E+04
  0.380765E+04
  0.388455E+04
  0.395875E+04
  0.403030E+04
  0.409923E+04
  0.416904E+04
  0.423641E+04
  0.430111E+04
  0.436322E+04
  0.442284E+04
  0.448580E+04
  0.454914E+04
  0.460987E+04
  0.466815E+04
  0.472414E+04
  0.478257E+04
  0.484230E+04
  0.489792E+04
  0.494951E+04
  0.499716E+04
  0.504174E+04
  0.508256E+04
  0.511853E+04
  0.514968E+04
  0.517605E+04
  0.519225E+04
  0.520213E+04
  0.520790E+04
  0.520965E+04
  0.521467E+04
  0.523499E+04
  0.524918E+04
  0.525727E+04
  0.526573E+04
  0.531462E+04
  0.535716E+04
  0.539338E+04
  0.542270E+04
  0.544466E+04
  0.546039E+04
  0.546989E+04
  0.547122E+04
  0.546669E+04
  0.545652E+04
  0.544791E+04
  0.543485E+04
  0.541664E+04
  0.539631E+04
  0.537056E+04
  0.533229E+04
  0.528644E+04
  0.521879E+04
  0.513772E+04
  0.501780E+04
  0.487211E+04
  0.468645E+04
  0.441503E+04
  0.401725E+04
  0.354221E+04
  0.282905E+04
  0.226746E-03
 -0.120805E-03
 -0.167297E+02
 -0.107947E+02
 -0.849777E+01
 -0.674777E+01
 -0.574291E+01
 -0.522322E+01
 -0.508899E+01
 -0.514566E+01
 -0.528399E+01
 -0.529225E+01
 -0.512514E+01
 -0.465976E+01
 -0.424814E+01
 -0.566996E+01
 -0.683379E+01
 -0.903125E+01
 -0.113253E+02
 -0.124934E+02
 -0.134651E+02
 -0.138186E+02
 -0.128282E+02
 -0.128313E+02
 -0.124847E+02
 -0.121169E+02
 -0.126072E+02
 -0.128184E+02
 -0.130205E+02
 -0.130910E+02
 -0.131358E+02
 -0.131873E+02
 -0.136573E+02
 -0.150918E+02
 -0.158248E+02
 -0.168625E+02
 -0.194274E+02
 -0.198445E+02
 -0.204612E+02
 -0.223387E+02
 -0.219145E+02
 -0.204206E+02
 -0.178696E+02
 -0.131516E+02
 -0.918750E+01
 -0.602840E+01
 -0.481663E+01
 -0.701486E+01
  0.395908E+02
  0.683352E+02
  0.830478E+02
  0.859138E+02
  0.556242E+02
  0.267812E+02
  0.104810E+02
  0.824307E+00
  0.107983E+01
  0.135157E+01
  0.169599E+01
  0.208883E+01
  0.247661E+01
  0.285857E+01
  0.307157E+01
  0.328481E+01
  0.349790E+01
  0.374478E+01
  0.426741E+01
  0.478539E+01
  0.529928E+01
  0.580968E+01
  0.623106E+01
  0.663293E+01
  0.702979E+01
  0.742335E+01
  0.765229E+01
  0.751225E+01
  0.737831E+01
  0.725085E+01
  0.713020E+01
  0.686929E+01
  0.644595E+01
  0.602992E+01
  0.562110E+01
  0.521945E+01
  0.488708E+01
  0.465036E+01
  0.441712E+01
  0.418736E+01
  0.396105E+01
  0.378168E+01
  0.377993E+01
  0.377694E+01
  0.377273E+01
  0.376732E+01
  0.376073E+01
  0.379687E+01
  0.383462E+01
  0.387008E+01
  0.390332E+01
  0.393440E+01
  0.393074E+01
  0.390869E+01
  0.388590E+01
  0.386246E+01
  0.383844E+01
  0.378155E+01
  0.368974E+01
  0.359792E+01
  0.350613E+01
  0.341436E+01
  0.329142E+01
  0.313634E+01
  0.298277E+01
  0.283071E+01
  0.268014E+01
  0.251729E+01
  0.235224E+01
  0.219046E+01
  0.203193E+01
  0.189340E+01
  0.180482E+01
  0.171729E+01
  0.163083E+01
  0.155149E+01
  0.151649E+01
  0.148155E+01
  0.144668E+01
  0.141415E+01
  0.138599E+01
  0.135772E+01
  0.132933E+01
  0.130543E+01
  0.128166E+01
  0.125761E+01
  0.123335E+01
  0.120886E+01
  0.118553E+01
  0.117027E+01
  0.115436E+01
  0.116591E+01
  0.118425E+01
  0.123243E+01
  0.129111E+01
  0.137662E+01
  0.147272E+01
  0.158989E+01
  0.179737E+01
  0.187060E+01
  0.173486E+01
  0.335978E+01
  0.174153E-05
  0.328241E-08
  0.162911E+01
  0.228627E+01
  0.259395E+01
  0.276616E+01
  0.286613E+01
  0.292481E+01
  0.295835E+01
  0.297693E+01
  0.298829E+01
  0.299124E+01
  0.298139E+01
  0.295825E+01
  0.291677E+01
  0.288104E+01
  0.286054E+01
  0.284298E+01
  0.283400E+01
  0.281203E+01
  0.278065E+01
  0.273893E+01
  0.268273E+01
  0.261912E+01
  0.255448E+01
  0.248298E+01
  0.241421E+01
  0.234313E+01
  0.226930E+01
  0.219779E+01
  0.211852E+01
  0.203501E+01
  0.195109E+01
  0.186495E+01
  0.177633E+01
  0.167161E+01
  0.156222E+01
  0.143263E+01
  0.129476E+01
  0.114904E+01
  0.100447E+01
  0.866630E+00
  0.729548E+00
  0.586058E+00
  0.449383E+00
  0.326322E+00
  0.245817E+00
  0.234484E+00
  0.242303E+00
  0.206552E+00
  0.186086E+00
  0.192395E+00
  0.182728E+00
  0.136062E+00
  0.101611E+00
  0.724334E-01
  0.487035E-01
  0.248890E-01
  0.219118E-01
  0.367509E-01
  0.514299E-01
  0.659571E-01
  0.823092E-01
  0.985588E-01
  0.114708E+00
  0.130896E+00
  0.148086E+00
  0.165158E+00
  0.182132E+00
  0.199029E+00
  0.220084E+00
  0.241480E+00
  0.262636E+00
  0.283648E+00
  0.304345E+00
  0.324163E+00
  0.343645E+00
  0.362883E+00
  0.381978E+00
  0.399580E+00
  0.415190E+00
  0.430371E+00
  0.445146E+00
  0.459535E+00
  0.473250E+00
  0.486122E+00
  0.498594E+00
  0.510672E+00
  0.522361E+00
  0.533763E+00
  0.545166E+00
  0.556177E+00
  0.566801E+00
  0.577045E+00
  0.586914E+00
  0.596910E+00
  0.606556E+00
  0.615819E+00
  0.624711E+00
  0.633247E+00
  0.642262E+00
  0.651331E+00
  0.660027E+00
  0.668371E+00
  0.676386E+00
  0.684753E+00
  0.693304E+00
  0.701268E+00
  0.708655E+00
  0.715477E+00
  0.721860E+00
  0.727704E+00
  0.732853E+00
  0.737314E+00
  0.741090E+00
  0.743409E+00
  0.744824E+00
  0.745650E+00
  0.745900E+00
  0.746618E+00
  0.749529E+00
  0.751561E+00
  0.752718E+00
  0.753930E+00
  0.760929E+00
  0.767021E+00
  0.772206E+00
  0.776404E+00
  0.779548E+00
  0.781800E+00
  0.783161E+00
  0.783351E+00
  0.782703E+00
  0.781246E+00
  0.780014E+00
  0.778143E+00
  0.775537E+00
  0.772626E+00
  0.768940E+00
  0.763459E+00
  0.756894E+00
  0.747210E+00
  0.735602E+00
  0.718432E+00
  0.697572E+00
  0.670990E+00
  0.632129E+00
  0.575176E+00
  0.507162E+00
  0.405054E+00
  0.324647E-07
 -0.215179E+03
 -0.116165E+00
 -0.760296E-01
 -0.609323E-01
 -0.493010E-01
 -0.427901E-01
 -0.397151E-01
 -0.395102E-01
 -0.408130E-01
 -0.428347E-01
 -0.438676E-01
 -0.434595E-01
 -0.404421E-01
 -0.377557E-01
 -0.516311E-01
 -0.637951E-01
 -0.864837E-01
 -0.111320E+00
 -0.126137E+00
 -0.139735E+00
 -0.147514E+00
 -0.140980E+00
 -0.145299E+00
 -0.145805E+00
 -0.146092E+00
 -0.157093E+00
 -0.165265E+00
 -0.173912E+00
 -0.181393E+00
 -0.189098E+00
 -0.197541E+00
 -0.213220E+00
 -0.246112E+00
 -0.270133E+00
 -0.301956E+00
 -0.366060E+00
 -0.394363E+00
 -0.430078E+00
 -0.498522E+00
 -0.520862E+00
 -0.519673E+00
 -0.489584E+00
 -0.390768E+00
 -0.299177E+00
 -0.217628E+00
 -0.195713E+00
 -0.325968E+00
  0.214422E+01
  0.441435E+01
  0.660780E+01
  0.892316E+01
  0.831748E+01
  0.533037E+01
  0.208576E+01
  0.163791E+00
  0.214733E+00
  0.268748E+00
  0.336859E+00
  0.414232E+00
  0.490360E+00
  0.565064E+00
  0.603049E+00
  0.640563E+00
  0.677544E+00
  0.720538E+00
  0.815718E+00
  0.908760E+00
  0.999808E+00
  0.108899E+01
  0.116699E+01
  0.124229E+01
  0.131664E+01
  0.139037E+01
  0.143602E+01
  0.141874E+01
  0.140238E+01
  0.138703E+01
  0.137278E+01
  0.133201E+01
  0.125987E+01
  0.118799E+01
  0.111638E+01
  0.104503E+01
  0.986261E+00
  0.945675E+00
  0.905170E+00
  0.864746E+00
  0.824401E+00
  0.793534E+00
  0.800875E+00
  0.808089E+00
  0.815178E+00
  0.822140E+00
  0.828977E+00
  0.847030E+00
  0.866027E+00
  0.884970E+00
  0.903873E+00
  0.922748E+00
  0.934576E+00
  0.942684E+00
  0.950843E+00
  0.959075E+00
  0.967403E+00
  0.967888E+00
  0.959657E+00
  0.951148E+00
  0.942353E+00
  0.933262E+00
  0.915245E+00
  0.887564E+00
  0.859314E+00
  0.830463E+00
  0.800976E+00
  0.766510E+00
  0.729992E+00
  0.693072E+00
  0.655725E+00
  0.623342E+00
  0.606126E+00
  0.588563E+00
  0.570631E+00
  0.554440E+00
  0.553477E+00
  0.552494E+00
  0.551488E+00
  0.551175E+00
  0.552255E+00
  0.553335E+00
  0.554415E+00
  0.556976E+00
  0.559672E+00
  0.562368E+00
  0.564741E+00
  0.567061E+00
  0.569973E+00
  0.576521E+00
  0.583069E+00
  0.604464E+00
  0.630735E+00
  0.676170E+00
  0.731115E+00
  0.808996E+00
  0.901788E+00
  0.102074E+01
  0.122448E+01
  0.137760E+01
  0.139212E+01
  0.310014E+01
  0.524074E+02
  0.974078E+00
  0.188463E+01
  0.268280E+01
  0.309879E+01
  0.336713E+01
  0.355791E+01
  0.370511E+01
  0.382661E+01
  0.393381E+01
  0.403592E+01
  0.413087E+01
  0.421197E+01
  0.427753E+01
  0.431889E+01
  0.437086E+01
  0.444898E+01
  0.453573E+01
  0.464101E+01
  0.473006E+01
  0.480761E+01
  0.487120E+01
  0.491198E+01
  0.494121E+01
  0.497033E+01
  0.498764E+01
  0.501187E+01
  0.503302E+01
  0.504987E+01
  0.507365E+01
  0.508099E+01
  0.507872E+01
  0.507492E+01
  0.506696E+01
  0.505186E+01
  0.498705E+01
  0.490418E+01
  0.474327E+01
  0.453414E+01
  0.427216E+01
  0.397754E+01
  0.367437E+01
  0.333008E+01
  0.290114E+01
  0.243800E+01
  0.196266E+01
  0.166409E+01
  0.181534E+01
  0.218635E+01
  0.222299E+01
  0.246678E+01
  0.332917E+01
  0.455219E+01
  0.451182E+01
  0.336890E+01
  0.239788E+01
  0.161359E+01
  0.824523E+00
  0.725084E+00
  0.121421E+01
  0.169652E+01
  0.217219E+01
  0.269232E+01
  0.320210E+01
  0.370178E+01
  0.419609E+01
  0.471604E+01
  0.522540E+01
  0.572497E+01
  0.621544E+01
  0.686724E+01
  0.753505E+01
  0.819536E+01
  0.885111E+01
  0.951530E+01
  0.101996E+02
  0.108819E+02
  0.115651E+02
  0.122524E+02
  0.129088E+02
  0.135198E+02
  0.141265E+02
  0.147293E+02
  0.153289E+02
  0.159118E+02
  0.164698E+02
  0.170226E+02
  0.175702E+02
  0.181128E+02
  0.186602E+02
  0.192441E+02
  0.198253E+02
  0.204039E+02
  0.209802E+02
  0.215542E+02
  0.221855E+02
  0.228227E+02
  0.234611E+02
  0.241013E+02
  0.247438E+02
  0.254413E+02
  0.261712E+02
  0.269070E+02
  0.276499E+02
  0.284010E+02
  0.291996E+02
  0.300422E+02
  0.308864E+02
  0.317328E+02
  0.325819E+02
  0.334422E+02
  0.343098E+02
  0.351751E+02
  0.360383E+02
  0.368995E+02
  0.377138E+02
  0.385102E+02
  0.393066E+02
  0.401034E+02
  0.409516E+02
  0.419378E+02
  0.429141E+02
  0.438799E+02
  0.448872E+02
  0.462692E+02
  0.476546E+02
  0.490437E+02
  0.504163E+02
  0.517500E+02
  0.530838E+02
  0.544176E+02
  0.556837E+02
  0.569437E+02
  0.582036E+02
  0.595050E+02
  0.608135E+02
  0.621199E+02
  0.634138E+02
  0.647078E+02
  0.659444E+02
  0.671623E+02
  0.683003E+02
  0.693988E+02
  0.703403E+02
  0.711638E+02
  0.717711E+02
  0.717477E+02
  0.705715E+02
  0.678027E+02
  0.622690E+02
  0.162765E+03
 -0.215148E+03
 -0.116422E+00
 -0.761926E-01
 -0.610217E-01
 -0.493243E-01
 -0.427742E-01
 -0.396690E-01
 -0.394395E-01
 -0.407300E-01
 -0.427427E-01
 -0.437704E-01
 -0.433603E-01
 -0.403674E-01
 -0.377088E-01
 -0.515718E-01
 -0.637456E-01
 -0.864636E-01
 -0.111341E+00
 -0.126249E+00
 -0.139929E+00
 -0.147758E+00
 -0.141270E+00
 -0.145569E+00
 -0.146026E+00
 -0.146235E+00
 -0.157081E+00
 -0.165066E+00
 -0.173508E+00
 -0.180800E+00
 -0.188310E+00
 -0.196543E+00
 -0.211981E+00
 -0.244649E+00
 -0.268511E+00
 -0.300107E+00
 -0.364042E+00
 -0.391989E+00
 -0.427276E+00
 -0.495246E+00
 -0.516976E+00
 -0.515239E+00
 -0.484668E+00
 -0.385468E+00
 -0.293642E+00
 -0.211991E+00
 -0.190107E+00
 -0.320633E+00
  0.214859E+01
  0.441690E+01
  0.660873E+01
  0.892213E+01
  0.831419E+01
  0.532543E+01
  0.207970E+01
  0.157150E+00
  0.207703E+00
  0.261377E+00
  0.329073E+00
  0.405948E+00
  0.481588E+00
  0.555816E+00
  0.593377E+00
  0.630479E+00
  0.667060E+00
  0.709713E+00
  0.804970E+00
  0.898086E+00
  0.989206E+00
  0.107845E+01
  0.115671E+01
  0.123228E+01
  0.130690E+01
  0.138089E+01
  0.142678E+01
  0.140972E+01
  0.139358E+01
  0.137845E+01
  0.136441E+01
  0.132380E+01
  0.125175E+01
  0.117997E+01
  0.110846E+01
  0.103720E+01
  0.978495E+00
  0.937924E+00
  0.897437E+00
  0.857030E+00
  0.816705E+00
  0.785869E+00
  0.793283E+00
  0.800571E+00
  0.807733E+00
  0.814770E+00
  0.821681E+00
  0.839891E+00
  0.859050E+00
  0.878154E+00
  0.897216E+00
  0.916249E+00
  0.928281E+00
  0.936615E+00
  0.944997E+00
  0.953447E+00
  0.961990E+00
  0.962682E+00
  0.954653E+00
  0.946342E+00
  0.937741E+00
  0.928843E+00
  0.910966E+00
  0.883376E+00
  0.855215E+00
  0.826451E+00
  0.797051E+00
  0.762583E+00
  0.726029E+00
  0.689074E+00
  0.651692E+00
  0.619271E+00
  0.602008E+00
  0.584398E+00
  0.566420E+00
  0.550190E+00
  0.549232E+00
  0.548255E+00
  0.547255E+00
  0.546951E+00
  0.548051E+00
  0.549150E+00
  0.550250E+00
  0.552827E+00
  0.555538E+00
  0.558249E+00
  0.560690E+00
  0.563086E+00
  0.566085E+00
  0.572790E+00
  0.579494E+00
  0.601121E+00
  0.627647E+00
  0.673377E+00
  0.728637E+00
  0.806759E+00
  0.899693E+00
  0.101858E+01
  0.122199E+01
  0.137506E+01
  0.139148E+01
  0.310768E+01
  0.523245E+02
  0.101881E+01
  0.188246E+01
  0.267983E+01
  0.309534E+01
  0.336333E+01
  0.355383E+01
  0.370079E+01
  0.382207E+01
  0.392906E+01
  0.403097E+01
  0.412574E+01
  0.420668E+01
  0.427212E+01
  0.431338E+01
  0.436514E+01
  0.444303E+01
  0.452934E+01
  0.463420E+01
  0.472271E+01
  0.479982E+01
  0.486301E+01
  0.490350E+01
  0.493253E+01
  0.496153E+01
  0.497874E+01
  0.500289E+01
  0.502393E+01
  0.504062E+01
  0.506422E+01
  0.507135E+01
  0.506883E+01
  0.506475E+01
  0.505645E+01
  0.504100E+01
  0.497582E+01
  0.489254E+01
  0.473133E+01
  0.452182E+01
  0.425962E+01
  0.396475E+01
  0.366134E+01
  0.331685E+01
  0.288756E+01
  0.242392E+01
  0.194802E+01
  0.164870E+01
  0.179874E+01
  0.217189E+01
  0.220984E+01
  0.245301E+01
  0.331248E+01
  0.453097E+01
  0.448851E+01
  0.334596E+01
  0.237465E+01
  0.158940E+01
  0.799414E+00
  0.699003E+00
  0.118710E+01
  0.166839E+01
  0.214306E+01
  0.266225E+01
  0.317111E+01
  0.366989E+01
  0.416332E+01
  0.468247E+01
  0.519104E+01
  0.568983E+01
  0.617953E+01
  0.683062E+01
  0.749772E+01
  0.815731E+01
  0.881232E+01
  0.947580E+01
  0.101594E+02
  0.108411E+02
  0.115236E+02
  0.122102E+02
  0.128659E+02
  0.134764E+02
  0.140825E+02
  0.146848E+02
  0.152839E+02
  0.158663E+02
  0.164237E+02
  0.169759E+02
  0.175230E+02
  0.180651E+02
  0.186120E+02
  0.191950E+02
  0.197755E+02
  0.203534E+02
  0.209290E+02
  0.215022E+02
  0.221326E+02
  0.227689E+02
  0.234063E+02
  0.240455E+02
  0.246871E+02
  0.253835E+02
  0.261122E+02
  0.268467E+02
  0.275883E+02
  0.283382E+02
  0.291354E+02
  0.299769E+02
  0.308199E+02
  0.316652E+02
  0.325133E+02
  0.333727E+02
  0.342400E+02
  0.351052E+02
  0.359685E+02
  0.368299E+02
  0.376443E+02
  0.384409E+02
  0.392376E+02
  0.400352E+02
  0.408839E+02
  0.418694E+02
  0.428451E+02
  0.438106E+02
  0.448175E+02
  0.461975E+02
  0.475809E+02
  0.489681E+02
  0.503388E+02
  0.516708E+02
  0.530029E+02
  0.543350E+02
  0.555996E+02
  0.568581E+02
  0.581166E+02
  0.594167E+02
  0.607238E+02
  0.620289E+02
  0.633217E+02
  0.646146E+02
  0.658502E+02
  0.670671E+02
  0.682042E+02
  0.693017E+02
  0.702423E+02
  0.710652E+02
  0.716723E+02
  0.716494E+02
  0.704747E+02
  0.677090E+02
  0.621786E+02
  0.162678E+03
 -0.314600E-01
  0.256873E-03
  0.163085E-03
  0.894317E-04
  0.232987E-04
 -0.158935E-04
 -0.460529E-04
 -0.707131E-04
 -0.829930E-04
 -0.919406E-04
 -0.972001E-04
 -0.992108E-04
 -0.747548E-04
 -0.468949E-04
 -0.592581E-04
 -0.495131E-04
 -0.200750E-04
  0.208061E-04
  0.112081E-03
  0.193161E-03
  0.244186E-03
  0.290065E-03
  0.270273E-03
  0.220561E-03
  0.142784E-03
 -0.121408E-04
 -0.199406E-03
 -0.404010E-03
 -0.592152E-03
 -0.788029E-03
 -0.997741E-03
 -0.123944E-02
 -0.146368E-02
 -0.162206E-02
 -0.184957E-02
 -0.201770E-02
 -0.237310E-02
 -0.280185E-02
 -0.327586E-02
 -0.388674E-02
 -0.443374E-02
 -0.491593E-02
 -0.530007E-02
 -0.553453E-02
 -0.563744E-02
 -0.560588E-02
 -0.533531E-02
 -0.437499E-02
 -0.255270E-02
 -0.921558E-03
  0.103620E-02
  0.328574E-02
  0.493583E-02
  0.606126E-02
  0.664170E-02
  0.703005E-02
  0.737016E-02
  0.778563E-02
  0.828448E-02
  0.877164E-02
  0.924745E-02
  0.967177E-02
  0.100837E-01
  0.104845E-01
  0.108244E-01
  0.107480E-01
  0.106739E-01
  0.106024E-01
  0.105335E-01
  0.102818E-01
  0.100082E-01
  0.974138E-02
  0.948136E-02
  0.923751E-02
  0.901773E-02
  0.879847E-02
  0.857982E-02
  0.836198E-02
  0.820377E-02
  0.811228E-02
  0.801936E-02
  0.792502E-02
  0.782929E-02
  0.776591E-02
  0.775051E-02
  0.773368E-02
  0.771542E-02
  0.769571E-02
  0.766452E-02
  0.759169E-02
  0.751836E-02
  0.744453E-02
  0.737022E-02
  0.729541E-02
  0.713902E-02
  0.697679E-02
  0.681607E-02
  0.665694E-02
  0.649948E-02
  0.629544E-02
  0.606893E-02
  0.584620E-02
  0.562744E-02
  0.541284E-02
  0.520557E-02
  0.500465E-02
  0.480661E-02
  0.461163E-02
  0.441989E-02
  0.427820E-02
  0.418800E-02
  0.409913E-02
  0.401167E-02
  0.392570E-02
  0.392746E-02
  0.396224E-02
  0.399733E-02
  0.403288E-02
  0.407180E-02
  0.411857E-02
  0.416502E-02
  0.421118E-02
  0.425077E-02
  0.424470E-02
  0.423900E-02
  0.423369E-02
  0.422385E-02
  0.420449E-02
  0.418513E-02
  0.416576E-02
  0.414982E-02
  0.413418E-02
  0.411855E-02
  0.405107E-02
  0.397480E-02
  0.388731E-02
  0.373109E-02
  0.357486E-02
  0.334370E-02
  0.308794E-02
  0.279297E-02
  0.247854E-02
  0.223770E-02
  0.209525E-02
  0.215509E-02
  0.249744E-02
  0.254489E-02
  0.639992E-03
 -0.753985E-02
  0.828792E-01
 -0.447268E-01
  0.217277E-02
  0.296246E-02
  0.345255E-02
  0.380379E-02
  0.408084E-02
  0.432372E-02
  0.454737E-02
  0.475569E-02
  0.495144E-02
  0.513176E-02
  0.528910E-02
  0.541793E-02
  0.551540E-02
  0.571703E-02
  0.595156E-02
  0.639491E-02
  0.680492E-02
  0.734468E-02
  0.779084E-02
  0.818473E-02
  0.848024E-02
  0.867678E-02
  0.880157E-02
  0.890264E-02
  0.898415E-02
  0.909676E-02
  0.924696E-02